#------------------------------------------------------------------------------
#$Date: 2012-02-28 13:14:52 +0100 (Tue, 28 Feb 2012) $
#$Revision: 35911 $
#$URL: svn://www.crystallography.net/cod/cif/1/20/00/1200013.cif $
#------------------------------------------------------------------------------
#
# This file is available in the Crystallography Open Database (COD),
# http://www.crystallography.net/
#
# All data on this site have been placed in the public domain by the
# contributors.
#
data_1200013
_space_group_IT_number           166
_symmetry_space_group_name_Hall  '-R 3 2"'
_symmetry_space_group_name_H-M   'R -3 m :H'
_[local]_cod_cif_authors_sg_H-M  'R -3 m H'
loop_
_publ_author_name
'Nimmo, J'
'Lucas, B'
_publ_section_title
;
The crystal structures of $-gamma- and $-beta-K N O~3~ and the $-alpha-
$-gamma-$-beta phase transformations
;
_journal_coden_ASTM              ACBCAR
_journal_name_full               'Acta Crystallographica B (24,1968-38,1982)'
_journal_page_first              1968
_journal_page_last               1971
_journal_volume                  32
_journal_year                    1976
_chemical_formula_structural     'K N O3'
_chemical_formula_sum            'K N O3'
_chemical_name_systematic        'POTASSIUM NITRATE - $-beta'
_symmetry_cell_setting           trigonal
_cell_angle_alpha                90
_cell_angle_beta                 90
_cell_angle_gamma                120
_cell_formula_units_Z            3
_cell_length_a                   5.425(1)
_cell_length_b                   5.425(1)
_cell_length_c                   9.836(4)
_cell_volume                     250.7
_refine_ls_R_factor_all          0.13
loop_
_symmetry_equiv_pos_as_xyz
x,y,z
-y,x-y,z
y-x,-x,z
-y,-x,z
x,x-y,z
y-x,y,z
-x,-y,-z
y,y-x,-z
x-y,x,-z
y,x,-z
-x,y-x,-z
x-y,-y,-z
1/3+x,2/3+y,2/3+z
2/3+x,1/3+y,1/3+z
1/3-y,2/3+x-y,2/3+z
2/3-y,1/3+x-y,1/3+z
1/3-x+y,2/3-x,2/3+z
2/3-x+y,1/3-x,1/3+z
1/3-y,2/3-x,2/3+z
2/3-y,1/3-x,1/3+z
1/3+x,2/3+x-y,2/3+z
2/3+x,1/3+x-y,1/3+z
1/3-x+y,2/3+y,2/3+z
2/3-x+y,1/3+y,1/3+z
1/3-x,2/3-y,2/3-z
2/3-x,1/3-y,1/3-z
1/3+y,2/3-x+y,2/3-z
2/3+y,1/3-x+y,1/3-z
1/3+x-y,2/3+x,2/3-z
2/3+x-y,1/3+x,1/3-z
1/3+y,2/3+x,2/3-z
2/3+y,1/3+x,1/3-z
1/3-x,2/3-x+y,2/3-z
2/3-x,1/3-x+y,1/3-z
1/3+x-y,2/3-y,2/3-z
2/3+x-y,1/3-y,1/3-z
loop_
_atom_site_label
_atom_site_type_symbol
_atom_site_symmetry_multiplicity
_atom_site_Wyckoff_symbol
_atom_site_fract_x
_atom_site_fract_y
_atom_site_fract_z
_atom_site_occupancy
_atom_site_attached_hydrogens
_atom_site_calc_flag
K1 K1+ 3 a 0. 0. 0. 1. 0 d
N1 N5+ 3 b 0. 0. 0.5 1. 0 d
O1 O2- 18 h 0.130(2) -0.130(2) 0.475(5) 0.5 0 d
loop_
_atom_type_symbol
_atom_type_oxidation_number
K1+ 1.000
N5+ 5.000
O2- -2.000
_cod_database_code 1200013
